# vtk DataFile Version 3.0
vtk output
ASCII
DATASET UNSTRUCTURED_GRID
FIELD FieldData 2
TIME 1 1 double
0.0063013
CYCLE 1 1 int
0
POINTS 7583 float
-400 -60 -40
-400 -50 -40
-390.792 -50.6394 -41.1809
-391.196 -60.991 -40.9662
-400 -40 -40
-390.875 -40.3639 -40.9409
-400 -60 -30
-390.591 -60.5319 -30.5436
-381.706 -50.9398 -41.3515
-381.729 -61.2928 -41.3947
-381.609 -40.6831 -41.3678
-381.273 -61.092 -31.2199
-400 -30 -40
-390.7 -30.2435 -40.9605
-381.474 -30.4262 -41.3801
-400 -60 -20
-390.351 -60.3796 -20.3317
-380.732 -60.541 -21.0225
-372.217 -50.8735 -41.9264
-372.156 -60.9435 -42.0155
-372.257 -40.6552 -41.9623
-371.613 -60.7509 -31.8712
-372.167 -30.4585 -41.9836
-370.992 -60.2989 -21.8099
-400 -20 -40
-390.808 -20.1376 -40.9426
-381.501 -20.2544 -41.3397
-372.167 -20.2634 -41.9527
-400 -60 -10
-390.061 -60.0667 -10.235
-380.203 -60.0761 -10.9495
-370.264 -59.9835 -11.8045
-362.588 -50.6087 -42.7849
-362.507 -60.8276 -42.7461
-362.719 -40.49 -42.6862
-361.875 -60.4403 -32.6624
-362.673 -30.3415 -42.719
-361.116 -60.1774 -22.6395
-362.696 -20.2087 -42.6794
-360.297 -59.9753 -12.6683
-400 -10 -40
-390.713 -10.0611 -40.9672
-381.428 -10.1016 -41.3043
-372.106 -10.1088 -41.9523
-362.647 -10.076 -42.6932
-400 -60 0
-389.808 -59.8497 -0.262316
-379.606 -59.7321 -0.997247
-369.504 -59.7743 -1.85459
-359.466 -59.819 -2.72252
-352.92 -50.3811 -43.5315
-352.827 -60.4447 -43.573
-353.004 -40.2758 -43.5144
-352.055 -60.3095 -33.5278
-353.003 -30.1937 -43.508
-351.214 -60.0836 -23.5359
-353.018 -20.1082 -43.4933
-350.329 -59.9766 -13.5726
-353.002 -10.0262 -43.4849
-349.451 -59.8821 -3.62626
-400 0 -40
-390.811 0.0132719 -40.9486
-381.489 0.027839 -41.3328
-372.145 0.0392195 -41.9536
-362.681 0.0480869 -42.6829
-353.012 0.0517775 -43.4889
-400 -60 10
-389.642 -59.6512 9.60061
-379.198 -59.4347 8.85546
-368.886 -59.5219 8.02728
-358.705 -59.6076 7.18142
-348.608 -59.7286 6.29611
-343.123 -50.196 -44.4561
-343.05 -60.2839 -44.4567
-343.196 -40.1443 -44.4205
-342.197 -60.1454 -34.4423
-343.197 -30.0902 -44.4257
-341.29 -60.0497 -24.4666
-343.208 -20.0406 -44.4058
-340.369 -59.9831 -14.5095
-343.197 -9.99416 -44.4086
-339.453 -59.9253 -4.56011
-343.199 0.0517201 -44.4031
-338.558 -59.8219 5.37302
-400 10 -40
-390.712 10.0881 -40.9925
-381.428 10.156 -41.3422
-372.102 10.1894 -41.9724
-362.641 10.1705 -42.7034
-352.995 10.1299 -43.4918
-343.186 10.0962 -44.4136
-400 -60 20
-389.382 -59.4998 19.408
-378.782 -59.1249 18.6129
-368.33 -59.2143 17.8287
-358.046 -59.314 17.0356
-347.854 -59.5049 16.1848
-337.723 -59.6583 15.2826
-333.277 -50.0877 -45.3867
-333.23 -60.1204 -45.3821
-333.314 -40.0561 -45.381
-332.308 -60.0847 -35.3939
-333.321 -30.033 -45.3735
-331.357 -60.0275 -25.4291
-333.323 -20.0075 -45.3681
-330.415 -59.9883 -15.4724
-333.314 -9.98016 -45.3628
-329.473 -59.9486 -5.52176
-333.313 0.0476808 -45.3635
-328.534 -59.8932 4.41775
-333.302 10.0755 -45.365
-327.642 -59.797 14.3406
-400 20 -40
-390.805 20.1653 -40.9407
-381.496 20.3109 -41.341
-372.153 20.3409 -41.9575
-362.676 20.3048 -42.6904
-353.001 20.2091 -43.4988
-343.187 20.1408 -44.4121
-333.298 20.1014 -45.3721
-400 -60 30
-389.099 -59.3285 29.1287
-378.279 -58.7564 28.267
-367.772 -58.9061 27.593
-357.391 -59.0106 26.8482
-347.122 -59.2369 26.0357
-336.919 -59.4608 25.1601
-326.77 -59.64 24.2389
-323.379 -50.0352 -46.3561
-323.355 -60.0607 -46.3391
-323.397 -40.0226 -46.3659
-322.39 -60.033 -36.3694
-323.403 -30.0088 -46.366
-321.42 -60.0154 -26.4109
-323.404 -19.9939 -46.3604
-320.462 -59.9897 -16.4556
-323.401 -9.97588 -46.3581
-319.503 -59.9645 -6.50572
-323.395 0.0427101 -46.3548
-318.536 -59.9377 3.43854
-323.388 10.061 -46.3578
-317.595 -59.889 13.3714
-323.378 20.0787 -46.3599
-316.675 -59.7999 23.2847
-400 30 -40
-390.689 30.2721 -40.9211
-381.452 30.477 -41.2879
-372.131 30.5336 -41.9591
-362.637 30.4369 -42.7183
-352.966 30.2944 -43.5004
-343.162 30.1878 -44.4362
-333.284 30.1253 -45.381
-323.364 30.0931 -46.3692
-400 -60 40
-388.501 -58.7696 38.5728
-377.78 -58.3878 37.9622
-367.236 -58.6713 37.3293
-356.807 -58.7152 36.6363
-346.435 -59.0923 35.8555
-336.165 -59.2663 35.011
-325.942 -59.5554 34.1091
-315.788 -59.7066 33.1766
-313.46 -50.0159 -47.3476
-313.45 -60.0233 -47.3234
-313.471 -40.0063 -47.3655
-312.463 -60.0148 -37.3635
-313.474 -29.9971 -47.3673
-311.482 -60.006 -27.4065
-313.476 -19.9865 -47.3642
-310.51 -59.9914 -17.4527
-313.471 -9.9753 -47.3604
-309.538 -59.9756 -7.50327
-313.467 0.0369283 -47.3576
-308.557 -59.967 2.44197
-313.458 10.0492 -47.3576
-307.581 -59.9475 12.3802
-313.449 20.0604 -47.3591
-306.62 -59.8946 22.3053
-313.434 30.0711 -47.3646
-305.682 -59.8593 32.2138
-400 40 -40
-390.852 40.391 -41.004
-381.561 40.7227 -41.372
-372.205 40.7264 -41.9801
-362.66 40.586 -42.7307
-352.95 40.3763 -43.553
-343.147 40.2422 -44.4524
-333.267 40.1476 -45.4038
-323.349 40.1065 -46.3795
-313.421 40.0798 -47.3707
-400 -50 40
-388.966 -49.204 38.6198
-377.849 -48.8341 37.9132
-367.203 -48.8061 37.322
-356.729 -49.0185 36.5965
-346.335 -49.1971 35.852
-336.056 -49.448 34.9896
-325.84 -49.6367 34.1101
-315.711 -49.7993 33.1651
-305.627 -49.9052 32.1993
-303.533 -50.0062 -48.3517
-303.527 -60.0151 -48.3248
-303.543 -39.9991 -48.3728
-302.532 -60.0034 -38.3678
-303.543 -29.9917 -48.3772
-301.542 -60.0018 -28.4129
-303.545 -19.9844 -48.3745
-300.558 -59.9928 -18.4608
-303.539 -9.97661 -48.3705
-299.575 -59.9839 -8.51284
-303.536 0.0314003 -48.3667
-298.586 -59.9817 1.43136
-303.526 10.0394 -48.3652
-297.591 -59.977 11.3729
-303.518 20.0473 -48.3644
-296.599 -59.9615 21.3073
-303.503 30.0545 -48.3671
-295.627 -59.9331 31.2285
-303.491 40.0619 -48.3683
-295.594 -49.973 31.2047
-400 50 -40
-390.811 50.648 -41.3071
-381.699 50.9732 -41.473
-372.198 50.9397 -41.9983
-362.557 50.6985 -42.8749
-352.878 50.4832 -43.6171
-343.079 50.2941 -44.5153
-333.23 50.1786 -45.4316
-323.326 50.1175 -46.3901
-313.402 50.0889 -47.3706
-303.474 50.0686 -48.3635
-400 -40 40
-388.835 -39.5278 38.74
-377.949 -39.154 37.992
-367.195 -39.1201 37.3171
-356.637 -39.1887 36.6235
-346.23 -39.3968 35.8466
-335.941 -39.566 35.0076
-325.751 -39.7418 34.1111
-315.634 -39.8628 33.1723
-305.581 -39.9515 32.1951
-295.567 -39.9983 31.1953
-293.604 -50.0015 -49.3652
-293.602 -60.0074 -49.3359
-293.612 -39.9955 -49.3874
-292.598 -59.9988 -39.3809
-293.61 -29.99 -49.3926
-291.6 -59.999 -29.4281
-293.611 -19.9846 -49.391
-290.608 -59.9947 -19.4778
-293.605 -9.97936 -49.3865
-289.615 -59.9892 -9.53093
-293.601 0.0259761 -49.382
-288.619 -59.9891 0.412869
-293.591 10.0313 -49.379
-287.617 -59.9908 10.3543
-293.584 20.0365 -49.3761
-286.606 -59.992 20.293
-293.57 30.0419 -49.3756
-285.604 -59.9887 30.2246
-293.559 40.0472 -49.3731
-285.59 -50.0068 30.1965
-293.544 50.0532 -49.3644
-285.582 -40.0213 30.178
-400 60 -40
-391.214 60.9961 -41.0024
-381.758 61.3208 -41.4522
-372.166 61.0005 -42.0743
-362.495 60.9078 -42.8132
-352.796 60.5413 -43.6423
-343.006 60.3823 -44.5207
-333.179 60.2075 -45.4416
-323.296 60.1404 -46.3896
-313.386 60.0951 -47.3632
-303.461 60.0774 -48.352
-293.534 60.059 -49.3499
-400 -30 40
-389.042 -29.6796 38.722
-378.089 -29.4641 37.9894
-367.302 -29.3674 37.3119
-356.683 -29.4309 36.5925
-346.227 -29.5539 35.8425
-335.923 -29.699 34.9914
-325.723 -29.8301 34.1117
-315.615 -29.9249 33.1689
-305.565 -29.9879 32.1957
-295.56 -30.0198 31.1929
-285.579 -30.0329 30.176
-283.673 -49.9997 -50.3849
-283.673 -60.0056 -50.3552
-283.68 -39.9949 -50.4083
-282.663 -59.9962 -40.4019
-283.676 -29.9906 -50.4141
-281.657 -59.9984 -30.4507
-283.676 -19.9867 -50.4127
-280.657 -59.9964 -20.5019
-283.669 -9.98298 -50.4076
-279.657 -59.9931 -10.5558
-283.665 0.0206153 -50.4022
-278.654 -59.9933 -0.612492
-283.655 10.0242 -50.3978
-277.647 -59.9989 9.32857
-283.648 20.0279 -50.3928
-276.631 -60.011 19.2679
-283.635 30.0317 -50.3896
-275.612 -60.0078 29.2053
-283.625 40.036 -50.3839
-275.611 -50.0194 29.176
-283.611 50.0406 -50.3721
-275.609 -40.0286 29.1541
-283.604 60.0464 -50.3561
-275.609 -30.0383 29.1504
-400 60 -30
-390.602 60.5114 -30.5743
-381.288 61.0805 -31.2732
-371.62 60.7811 -31.9452
-361.862 60.493 -32.7382
-352.031 60.3764 -33.6016
-342.163 60.2151 -34.5118
-332.265 60.1527 -35.455
-322.344 60.0969 -36.4209
-312.414 60.072 -37.4025
-302.481 60.0525 -38.3938
-292.545 60.0389 -39.3938
-282.608 60.0271 -40.4015
-400 -20 40
-388.917 -19.8179 38.8008
-378.063 -19.6725 38.0438
-367.314 -19.6347 37.3413
-356.677 -19.6391 36.6225
-346.211 -19.7304 35.8471
-335.892 -19.8246 35.0108
-325.694 -19.9161 34.1211
-315.592 -19.9817 33.1807
-305.554 -20.0216 32.1987
-295.556 -20.0387 31.194
-285.58 -20.0459 30.1749
-275.608 -20.048 29.1507
-273.741 -49.9998 -51.4109
-273.742 -60.004 -51.3811
-273.745 -39.9959 -51.4346
-272.725 -59.9959 -41.4295
-273.74 -29.9926 -51.4407
-271.714 -59.9986 -31.4797
-273.739 -19.9897 -51.4391
-270.706 -59.9982 -21.5319
-273.731 -9.98716 -51.4331
-269.7 -59.9959 -11.5865
-273.727 0.0152732 -51.4268
-268.691 -59.9966 -1.64334
-273.717 10.0177 -51.4208
-267.679 -60.0045 8.29785
-273.711 20.0202 -51.4142
-266.66 -60.0178 18.2375
-273.698 30.023 -51.4085
-265.636 -60.0166 28.1763
-273.689 40.0261 -51.3999
-265.639 -50.024 28.1468
-273.677 50.03 -51.3859
-265.638 -40.0323 28.125
-273.671 60.034 -51.3686
-265.64 -30.0404 28.1214
-272.669 60.0175 -41.4157
-265.639 -20.0486 28.1223
-400 60 -20
-390.357 60.382 -20.355
-380.74 60.5452 -21.0827
-370.987 60.3167 -21.8886
-361.103 60.2095 -22.7225
-351.192 60.1217 -23.6141
-341.262 60.0895 -24.5387
-331.326 60.0629 -25.491
-321.388 60.0472 -26.4612
-311.447 60.0329 -27.4445
-301.506 60.0234 -28.4379
-291.562 60.0148 -29.4399
-281.618 60.0079 -30.4491
-271.673 60.0014 -31.4646
-400 -10 40
-389.037 -9.91902 38.782
-378.143 -9.8698 38.046
-367.377 -9.84374 37.3407
-356.738 -9.85993 36.6112
-346.229 -9.90001 35.8496
-335.892 -9.95225 35.0071
-325.688 -9.99972 34.1267
-315.588 -10.0331 33.1831
-305.555 -10.0519 32.204
-295.559 -10.0582 31.197
-285.581 -10.0593 30.1792
-275.611 -10.0584 29.1553
-265.643 -10.0565 28.1283
[...]
POINT_DATA 7583
SCALARS NODE_ID int 1
LOOKUP_TABLE default
1000001
1000071
1002952
1000129
1000002
1000208
1000101
1005322
1002953
1000130
1000209
1005323
1000072
1003031
1003032
1000008
1000682
1000683
1002954
1000131
1000210
1005324
1003033
1000684
1000003
1000287
1000288
1000289
1000108
1005875
1005876
1005877
1002955
1000132
1000211
1005325
1003034
1000685
1000290
1005878
1000073
1003110
1003111
1003112
1003113
1000015
1001235
1001236
1001237
1001238
1002956
1000133
1000212
1005326
1003035
1000686
1000291
1005879
1003114
1001239
1000004
1000366
1000367
1000368
1000369
1000370
1000115
1006428
1006429
1006430
1006431
1006432
1002957
1000134
1000213
1005327
1003036
1000687
1000292
1005880
1003115
1001240
1000371
1006433
1000074
1003189
1003190
1003191
1003192
1003193
1003194
1000022
1001788
1001789
1001790
1001791
1001792
1001793
1002958
1000135
1000214
1005328
1003037
1000688
1000293
1005881
1003116
1001241
1000372
1006434
1003195
1001794
1000005
1000445
1000446
1000447
1000448
1000449
1000450
1000451
1000122
1006981
1006982
1006983
1006984
1006985
1006986
1006987
1002959
1000136
1000215
1005329
1003038
1000689
1000294
1005882
1003117
1001242
1000373
1006435
1003196
1001795
1000452
1006988
1000075
1003268
1003269
1003270
1003271
1003272
1003273
1003274
1003275
1000029
1002341
1002342
1002343
1002344
1002345
1002346
1002347
1002348
1002960
1000137
1000216
1005330
1003039
1000690
1000295
1005883
1003118
1001243
1000374
1006436
1003197
1001796
1000453
1006989
1003276
1002349
1000006
1000524
1000525
1000526
1000527
1000528
1000529
1000530
1000531
1000532
1000095
1004848
1004849
1004850
1004851
1004852
1004853
1004854
1004855
1004856
1002961
1000138
1000217
1005331
1003040
1000691
1000296
1005884
1003119
1001244
1000375
1006437
1003198
1001797
1000454
1006990
1003277
1002350
1000533
1004857
1000076
1003347
1003348
1003349
1003350
1003351
1003352
1003353
1003354
1003355
1003356
1000030
1002420
1002421
1002422
1002423
1002424
1002425
1002426
1002427
1002428
1002429
1002962
1000139
1000218
1005332
1003041
1000692
1000297
1005885
1003120
1001245
1000376
1006438
1003199
1001798
1000455
1006991
1003278
1002351
1000534
1004858
1003357
1002430
1000007
1000603
1000604
1000605
1000606
1000607
1000608
1000609
1000610
1000611
1000612
1000613
1000096
1004927
1004928
1004929
1004930
1004931
1004932
1004933
1004934
1004935
1004936
1004937
1002963
1000140
1000219
1005333
1003042
1000693
1000298
1005886
1003121
1001246
1000377
1006439
1003200
1001799
1000456
1006992
1003279
1002352
1000535
1004859
1003358
1002431
1000614
1004938
1000107
1005796
1005797
1005798
1005799
1005800
1005801
1005802
1005803
1005804
1005805
1005806
1005807
1000031
1002499
1002500
1002501
1002502
1002503
1002504
1002505
1002506
1002507
1002508
1002509
1002510
1002964
1000141
1000220
1005334
1003043
1000694
1000299
1005887
1003122
1001247
1000378
1006440
1003201
1001800
1000457
1006993
1003280
1002353
1000536
1004860
1003359
1002432
1000615
1004939
1005808
1002511
1000014
1001156
1001157
1001158
1001159
1001160
1001161
1001162
1001163
1001164
1001165
1001166
1001167
1001168
1000097
1005006
1005007
1005008
1005009
1005010
1005011
1005012
1005013
1005014
1005015
1005016
1005017
1005018
1002965
1000142
1000221
1005335
1003044
1000695
1000300
1005888
1003123
1001248
1000379
1006441
1003202
1001801
1000458
1006994
1003281
1002354
1000537
1004861
1003360
1002433
1000616
1004940
1005809
1002512
1001169
1005019
1000114
1006349
1006350
1006351
1006352
1006353
1006354
1006355
1006356
1006357
1006358
1006359
1006360
1006361
1006362
1000032
1002578
1002579
1002580
1002581
1002582
1002583
1002584
1002585
1002586
1002587
1002588
1002589
1002590
1002591
1002966
1000143
1000222
1005336
1003045
1000696
1000301
1005889
1003124
1001249
1000380
1006442
1003203
1001802
1000459
1006995
1003282
1002355
1000538
1004862
1003361
1002434
1000617
1004941
1005810
1002513
1001170
1005020
1006363
1002592
1000021
1001709
1001710
1001711
1001712
1001713
1001714
1001715
1001716
1001717
1001718
1001719
1001720
1001721
1001722
1001723
1000098
1005085
1005086
1005087
1005088
1005089
1005090
1005091
1005092
1005093
1005094
1005095
1005096
1005097
1005098
1005099
1002967
1000144
1000223
1005337
1003046
1000697
1000302
1005890
1003125
1001250
1000381
1006443
1003204
1001803
1000460
1006996
1003283
1002356
1000539
1004863
1003362
1002435
1000618
1004942
1005811
1002514
1001171
1005021
1006364
1002593
1001724
1005100
1000121
1006902
1006903
1006904
1006905
1006906
1006907
1006908
1006909
1006910
1006911
1006912
1006913
1006914
1006915
1006916
1006917
1000033
1002657
1002658
1002659
1002660
1002661
1002662
1002663
1002664
1002665
1002666
1002667
1002668
1002669
1002670
1002671
1002672
1002968
1000145
1000224
1005338
1003047
1000698
1000303
1005891
1003126
1001251
1000382
1006444
1003205
1001804
1000461
1006997
1003284
1002357
1000540
1004864
1003363
1002436
1000619
1004943
1005812
1002515
1001172
1005022
1006365
1002594
1001725
1005101
1006918
1002673
1000028
1002262
1002263
1002264
1002265
1002266
1002267
1002268
1002269
1002270
1002271
1002272
1002273
1002274
1002275
1002276
1002277
1002278
1000099
1005164
1005165
1005166
1005167
1005168
1005169
1005170
1005171
1005172
1005173
1005174
1005175
1005176
1005177
1005178
1005179
1005180
1002969
1000146
1000225
1005339
1003048
1000699
1000304
1005892
1003127
1001252
1000383
1006445
1003206
1001805
1000462
1006998
1003285
1002358
1000541
1004865
1003364
1002437
1000620
1004944
1005813
1002516
1001173
1005023
1006366
1002595
1001726
1005102
1006919
1002674
1002279
1005181
1000128
1007455
1007456
1007457
1007458
1007459
1007460
1007461
1007462
1007463
1007464
1007465
1007466
1007467
1007468
1007469
1007470
1007471
1007472
1000034
1002736
1002737
1002738
1002739
1002740
1002741
1002742
1002743
1002744
1002745
1002746
1002747
1002748
1002749
1002750
1002751
1002752
1002753
1002970
1000147
1000226
1005340
1003049
1000700
1000305
1005893
1003128
1001253
1000384
1006446
1003207
1001806
1000463
1006999
1003286
1002359
1000542
1004866
1003365
1002438
1000621
1004945
1005814
1002517
1001174
1005024
1006367
1002596
1001727
1005103
1006920
1002675
1002280
1005182
1007473
1002754
1000035
1002815
1002816
1002817
1002818
1002819
1002820
1002821
1002822
1002823
1002824
1002825
1002826
1002827
1002828
1002829
1002830
1002831
1002832
1002833
1000100
1005243
1005244
1005245
1005246
1005247
1005248
1005249
1005250
1005251
1005252
1005253
1005254
1005255
1005256
1005257
1005258
1005259
1005260
1005261
1002971
1000148
1000227
1005341
1003050
1000701
1000306
1005894
1003129
1001254
1000385
1006447
1003208
1001807
1000464
1007000
1003287
1002360
1000543
1004867
1003366
1002439
1000622
1004946
1005815
1002518
1001175
1005025
1006368
1002597
1001728
1005104
1006921
1002676
1002281
1005183
1007474
1002755
1002834
1005262
1002972
1000149
1000228
1005342
1003051
1000702
1000307
1005895
1003130
1001255
1000386
1006448
1003209
1001808
1000465
1007001
1003288
1002361
1000544
1004868
1003367
1002440
1000623
1004947
1005816
1002519
1001176
1005026
1006369
1002598
1001729
1005105
1006922
1002677
1002282
1005184
1007475
1002756
1002835
1005263
1002973
1000150
1000229
1005343
1003052
1000703
1000308
1005896
1003131
1001256
1000387
1006449
1003210
1001809
1000466
1007002
1003289
1002362
1000545
1004869
1003368
1002441
1000624
1004948
1005817
1002520
1001177
1005027
1006370
1002599
1001730
1005106
1006923
1002678
1002283
1005185
1007476
1002757
1002836
1005264
1002974
1000151
1000230
1005344
1003053
1000704
1000309
1005897
1003132
1001257
1000388
1006450
1003211
1001810
1000467
1007003
1003290
1002363
1000546
1004870
1003369
1002442
1000625
1004949
1005818
1002521
1001178
1005028
1006371
1002600
1001731
1005107
1006924
1002679
1002284
1005186
1007477
1002758
1002837
1005265
1002975
1000152
1000231
1005345
1003054
1000705
1000310
1005898
1003133
1001258
1000389
1006451
1003212
1001811
1000468
1007004
1003291
1002364
1000547
1004871
1003370
1002443
1000626
1004950
1005819
1002522
1001179
1005029
1006372
1002601
1001732
1005108
1006925
1002680
1002285
1005187
1007478
1002759
1002838
1005266
1002976
1000153
1000232
1005346
1003055
1000706
1000311
1005899
1003134
1001259
1000390
1006452
1003213
1001812
1000469
1007005
1003292
1002365
1000548
1004872
1003371
1002444
1000627
1004951
1005820
1002523
1001180
1005030
1006373
1002602
1001733
1005109
1006926
1002681
1002286
1005188
1007479
1002760
1002839
1005267
1002977
1000154
1000233
1005347
1003056
1000707
1000312
1005900
1003135
1001260
1000391
1006453
1003214
1001813
1000470
1007006
1003293
1002366
1000549
1004873
1003372
1002445
1000628
1004952
1005821
1002524
1001181
1005031
1006374
1002603
1001734
1005110
1006927
1002682
1002287
1005189
1007480
1002761
1002840
1005268
1002978
1000155
1000234
1005348
1003057
1000708
1000313
1005901
1003136
1001261
1000392
1006454
1003215
1001814
1000471
1007007
1003294
1002367
1000550
1004874
1003373
1002446
1000629
1004953
1005822
1002525
1001182
1005032
1006375
1002604
1001735
1005111
1006928
1002683
1002288
1005190
1007481
1002762
1002841
1005269
1002979
1000156
1000235
1005349
1003058
1000709
1000314
1005902
1003137
1001262
1000393
1006455
1003216
1001815
1000472
1007008
1003295
1002368
1000551
1004875
1003374
1002447
1000630
1004954
1005823
1002526
1001183
1005033
1006376
1002605
1001736
1005112
1006929
1002684
1002289
1005191
1007482
1002763
1002842
1005270
1002980
1000157
1000236
1005350
1003059
1000710
1000315
1005903
1003138
1001263
1000394
1006456
1003217
1001816
1000473
1007009
1003296
1002369
1000552
1004876
1003375
1002448
1000631
1004955
1005824
1002527
1001184
1005034
1006377
1002606
1001737
1005113
1006930
1002685
1002290
1005192
1007483
1002764
1002843
1005271
1002981
1000158
1000237
1005351
1003060
1000711
1000316
1005904
1003139
1001264
1000395
1006457
1003218
1001817
1000474
1007010
1003297
1002370
1000553
1004877
1003376
1002449
1000632
1004956
1005825
1002528
1001185
1005035
1006378
1002607
1001738
1005114
1006931
1002686
1002291
1005193
1007484
1002765
1002844
1005272
1002982
1000159
1000238
1005352
1003061
1000712
1000317
1005905
1003140
1001265
1000396
1006458
1003219
1001818
1000475
1007011
1003298
1002371
1000554
1004878
1003377
1002450
1000633
1004957
1005826
1002529
1001186
1005036
1006379
1002608
1001739
1005115
1006932
1002687
1002292
1005194
1007485
1002766
1002845
1005273
1002983
1000160
1000239
1005353
1003062
1000713
1000318
1005906
1003141
1001266
1000397
1006459
1003220
1001819
1000476
1007012
1003299
1002372
1000555
1004879
1003378
1002451
1000634
1004958
1005827
1002530
1001187
1005037
1006380
1002609
1001740
1005116
1006933
1002688
1002293
1005195
1007486
1002767
1002846
1005274
1002984
1000161
1000240
1005354
1003063
1000714
1000319
1005907
1003142
1001267
1000398
1006460
1003221
1001820
1000477
1007013
1003300
1002373
1000556
1004880
1003379
1002452
1000635
1004959
1005828
1002531
1001188
1005038
1006381
1002610
1001741
1005117
1006934
1002689
1002294
1005196
1007487
1002768
1002847
1005275
1002985
1000162
1000241
1005355
1003064
1000715
1000320
1005908
1003143
1001268
1000399
1006461
1003222
1001821
1000478
1007014
1003301
1002374
1000557
1004881
1003380
1002453
1000636
1004960
1005829
1002532
1001189
1005039
1006382
1002611
1001742
1005118
1006935
1002690
1002295
1005197
1007488
1002769
1002848
1005276
1002986
1000163
1000242
1005356
1003065
1000716
1000321
1005909
1003144
1001269
1000400
1006462
1003223
1001822
1000479
1007015
1003302
1002375
1000558
1004882
1003381
1002454
1000637
1004961
1005830
1002533
1001190
1005040
1006383
1002612
1001743
1005119
1006936
1002691
1002296
1005198
1007489
1002770
1002849
1005277
1002987
1000164
1000243
1005357
1003066
1000717
1000322
1005910
1003145
1001270
1000401
1006463
1003224
1001823
1000480
1007016
1003303
1002376
1000559
1004883
1003382
1002455
1000638
1004962
1005831
1002534
1001191
1005041
1006384
1002613
1001744
1005120
1006937
1002692
1002297
1005199
1007490
1002771
1002850
1005278
1002988
1000165
1000244
1005358
1003067
1000718
1000323
1005911
1003146
1001271
1000402
1006464
1003225
1001824
1000481
1007017
1003304
1002377
1000560
1004884
1003383
1002456
1000639
1004963
1005832
1002535
1001192
1005042
1006385
1002614
1001745
1005121
1006938
1002693
1002298
1005200
1007491
1002772
1002851
1005279
1002989
1000166
1000245
1005359
1003068
1000719
1000324
1005912
1003147
1001272
1000403
1006465
1003226
1001825
1000482
1007018
1003305
1002378
1000561
1004885
1003384
1002457
1000640
1004964
1005833
1002536
1001193
1005043
1006386
1002615
1001746
1005122
1006939
1002694
1002299
1005201
1007492
1002773
1002852
1005280
1002990
1000167
1000246
1005360
1003069
1000720
1000325
1005913
1003148
1001273
1000404
1006466
1003227
1001826
1000483
1007019
1003306
1002379
1000562
1004886
1003385
1002458
1000641
1004965
1005834
1002537
1001194
1005044
1006387
1002616
1001747
1005123
1006940
1002695
1002300
1005202
1007493
1002774
1002853
1005281
1002991
1000168
1000247
1005361
1003070
1000721
1000326
1005914
1003149
1001274
1000405
1006467
1003228
1001827
1000484
1007020
1003307
1002380
1000563
1004887
1003386
1002459
1000642
1004966
1005835
1002538
1001195
1005045
1006388
1002617
1001748
1005124
1006941
1002696
1002301
1005203
1007494
1002775
1002854
1005282
1002992
1000169
1000248
1005362
1003071
1000722
1000327
1005915
1003150
1001275
1000406
1006468
1003229
1001828
1000485
1007021
1003308
1002381
1000564
1004888
1003387
1002460
1000643
1004967
1005836
1002539
1001196
1005046
1006389
1002618
1001749
1005125
1006942
1002697
1002302
1005204
1007495
1002776
1002855
1005283
1002993
1000170
1000249
1005363
1003072
1000723
1000328
1005916
1003151
1001276
1000407
1006469
1003230
1001829
1000486
1007022
1003309
1002382
1000565
1004889
1003388
1002461
1000644
1004968
1005837
1002540
1001197
1005047
1006390
1002619
1001750
1005126
1006943
1002698
1002303
1005205
1007496
1002777
1002856
1005284
1002994
1000171
1000250
1005364
1003073
1000724
1000329
1005917
1003152
1001277
1000408
1006470
1003231
1001830
1000487
1007023
1003310
1002383
1000566
1004890
1003389
1002462
1000645
1004969
1005838
1002541
1001198
1005048
1006391
1002620
1001751
1005127
1006944
1002699
1002304
1005206
1007497
1002778
1002857
1005285
1002995
1000172
1000251
1005365
1003074
1000725
1000330
1005918
1003153
1001278
1000409
1006471
1003232
1001831
1000488
1007024
1003311
1002384
1000567
1004891
1003390
1002463
1000646
1004970
1005839
1002542
1001199
1005049
1006392
1002621
1001752
1005128
1006945
1002700
1002305
1005207
1007498
1002779
1002858
1005286
1002996
1000173
1000252
1005366
1003075
1000726
1000331
1005919
1003154
1001279
1000410
1006472
1003233
1001832
1000489
1007025
1003312
1002385
1000568
1004892
1003391
1002464
1000647
1004971
1005840
1002543
1001200
1005050
1006393
1002622
1001753
1005129
1006946
1002701
1002306
1005208
1007499
1002780
1002859
1005287
1002997
1000174
1000253
1005367
1003076
1000727
1000332
1005920
1003155
1001280
1000411
1006473
1003234
1001833
1000490
1007026
1003313
1002386
1000569
1004893
1003392
1002465
1000648
1004972
1005841
1002544
1001201
1005051
1006394
1002623
1001754
1005130
1006947
1002702
1002307
1005209
1007500
1002781
1002860
1005288
1002998
1000175
1000254
1005368
1003077
1000728
1000333
1005921
1003156
1001281
1000412
1006474
1003235
1001834
1000491
1007027
1003314
1002387
1000570
1004894
1003393
1002466
1000649
1004973
1005842
1002545
1001202
1005052
1006395
1002624
1001755
1005131
1006948
1002703
1002308
1005210
1007501
1002782
1002861
1005289
1002999
1000176
1000255
1005369
1003078
1000729
1000334
1005922
1003157
1001282
1000413
1006475
1003236
1001835
1000492
1007028
1003315
1002388
1000571
1004895
1003394
1002467
1000650
1004974
1005843
1002546
1001203
1005053
1006396
1002625
1001756
1005132
1006949
1002704
1002309
1005211
1007502
1002783
1002862
1005290
1003000
1000177
1000256
1005370
1003079
1000730
1000335
1005923
1003158
1001283
1000414
1006476
1003237
1001836
1000493
1007029
1003316
1002389
1000572
1004896
1003395
1002468
1000651
1004975
1005844
1002547
1001204
1005054
1006397
1002626
1001757
1005133
1006950
1002705
1002310
1005212
1007503
1002784
1002863
1005291
1003001
1000178
1000257
1005371
1003080
1000731
1000336
1005924
1003159
1001284
1000415
1006477
1003238
1001837
1000494
1007030
1003317
1002390
1000573
1004897
1003396
1002469
1000652
1004976
1005845
1002548
1001205
1005055
1006398
1002627
1001758
1005134
1006951
1002706
1002311
1005213
1007504
1002785
1002864
1005292
1003002
1000179
1000258
1005372
1003081
1000732
1000337
1005925
1003160
1001285
1000416
1006478
1003239
1001838
1000495
1007031
1003318
1002391
1000574
1004898
1003397
1002470
1000653
1004977
1005846
1002549
1001206
1005056
1006399
1002628
1001759
1005135
1006952
1002707
1002312
1005214
1007505
1002786
1002865
1005293
1003003
1000180
1000259
1005373
1003082
1000733
1000338
1005926
1003161
1001286
1000417
1006479
1003240
1001839
1000496
1007032
1003319
1002392
1000575
1004899
1003398
1002471
1000654
1004978
1005847
1002550
1001207
1005057
1006400
1002629
1001760
1005136
1006953
1002708
1002313
1005215
1007506
1002787
1002866
1005294
1003004
1000181
1000260
1005374
1003083
1000734
1000339
1005927
1003162
1001287
1000418
1006480
1003241
1001840
1000497
1007033
1003320
1002393
1000576
1004900
1003399
1002472
1000655
1004979
1005848
1002551
1001208
1005058
1006401
1002630
1001761
1005137
1006954
1002709
1002314
1005216
1007507
1002788
1002867
1005295
1003005
1000182
1000261
1005375
1003084
1000735
1000340
1005928
1003163
1001288
1000419
1006481
1003242
1001841
1000498
1007034
1003321
1002394
1000577
1004901
1003400
1002473
1000656
1004980
1005849
1002552
1001209
1005059
1006402
1002631
1001762
1005138
1006955
1002710
1002315
1005217
1007508
1002789
1002868
1005296
1003006
1000183
1000262
1005376
1003085
1000736
1000341
1005929
1003164
1001289
1000420
1006482
1003243
1001842
1000499
1007035
1003322
1002395
1000578
1004902
1003401
1002474
1000657
1004981
1005850
1002553
1001210
1005060
1006403
1002632
1001763
1005139
1006956
1002711
1002316
1005218
1007509
1002790
1002869
1005297
1003007
1000184
1000263
1005377
1003086
1000737
1000342
1005930
1003165
1001290
1000421
1006483
1003244
1001843
1000500
1007036
1003323
1002396
1000579
1004903
1003402
1002475
1000658
1004982
1005851
1002554
1001211
1005061
1006404
1002633
1001764
1005140
1006957
1002712
1002317
1005219
1007510
1002791
1002870
1005298
1003008
1000185
1000264
1005378
1003087
1000738
1000343
1005931
1003166
1001291
1000422
1006484
1003245
1001844
1000501
1007037
1003324
1002397
1000580
1004904
1003403
1002476
1000659
1004983
1005852
1002555
1001212
1005062
1006405
1002634
1001765
1005141
1006958
1002713
1002318
1005220
1007511
1002792
1002871
1005299
1003009
1000186
1000265
1005379
1003088
1000739
1000344
1005932
1003167
1001292
1000423
1006485
1003246
1001845
1000502
1007038
1003325
1002398
1000581
1004905
1003404
1002477
1000660
1004984
1005853
1002556
1001213
1005063
1006406
1002635
1001766
1005142
1006959
1002714
1002319
1005221
1007512
1002793
1002872
1005300
1003010
1000187
1000266
1005380
1003089
1000740
1000345
1005933
1003168
1001293
1000424
1006486
1003247
1001846
1000503
1007039
1003326
1002399
1000582
1004906
1003405
1002478
1000661
1004985
1005854
1002557
1001214
1005064
1006407
1002636
1001767
1005143
1006960
1002715
1002320
1005222
1007513
1002794
1002873
1005301
1003011
1000188
1000267
1005381
1003090
1000741
1000346
1005934
1003169
1001294
1000425
1006487
1003248
1001847
1000504
1007040
1003327
1002400
1000583
1004907
1003406
1002479
1000662
1004986
1005855
1002558
1001215
1005065
1006408
1002637
1001768
1005144
1006961
1002716
1002321
1005223
1007514
1002795
1002874
1005302
1003012
1000189
1000268
1005382
1003091
1000742
1000347
1005935
1003170
1001295
1000426
1006488
1003249
1001848
1000505
1007041
1003328
1002401
1000584
1004908
1003407
1002480
1000663
1004987
1005856
1002559
1001216
1005066
1006409
1002638
1001769
1005145
1006962
1002717
1002322
1005224
1007515
1002796
1002875
1005303
1003013
1000190
1000269
1005383
1003092
1000743
1000348
1005936
1003171
1001296
1000427
1006489